      -----------------------------------------------------------      
     |                   =====================                   |     
     |                           x T B                           |     
     |                   =====================                   |     
     |                         S. Grimme                         |     
     |          Mulliken Center for Theoretical Chemistry        |     
     |                    University of Bonn                     |     
      -----------------------------------------------------------      

   * xtb version 6.6.1 (8d0f1dd) compiled by 'conda@1efc2f54142f' on 2023-08-01

   xtb is free software: you can redistribute it and/or modify it under
   the terms of the GNU Lesser General Public License as published by
   the Free Software Foundation, either version 3 of the License, or
   (at your option) any later version.
   
   xtb is distributed in the hope that it will be useful,
   but WITHOUT ANY WARRANTY; without even the implied warranty of
   MERCHANTABILITY or FITNESS FOR A PARTICULAR PURPOSE.  See the
   GNU Lesser General Public License for more details.
   
   Cite this work as:
   * C. Bannwarth, E. Caldeweyher, S. Ehlert, A. Hansen, P. Pracht,
     J. Seibert, S. Spicher, S. Grimme, WIREs Comput. Mol. Sci., 2020, 11,
     e01493. DOI: 10.1002/wcms.1493
   
   for GFN2-xTB:
   * C. Bannwarth, S. Ehlert and S. Grimme., J. Chem. Theory Comput., 2019,
     15, 1652-1671. DOI: 10.1021/acs.jctc.8b01176
   for GFN1-xTB:
   * S. Grimme, C. Bannwarth, P. Shushkov, J. Chem. Theory Comput., 2017,
     13, 1989-2009. DOI: 10.1021/acs.jctc.7b00118
   for GFN0-xTB:
   * P. Pracht, E. Caldeweyher, S. Ehlert, S. Grimme, ChemRxiv, 2019, preprint.
     DOI: 10.26434/chemrxiv.8326202.v1
   for GFN-FF:
   * S. Spicher and S. Grimme, Angew. Chem. Int. Ed., 2020, 59, 15665-15673.
     DOI: 10.1002/anie.202004239
   
   for ALPB and GBSA implicit solvation:
   * S. Ehlert, M. Stahn, S. Spicher, S. Grimme, J. Chem. Theory Comput.,
     2021, 17, 4250-4261. DOI: 10.1021/acs.jctc.1c00471
   
   for DFT-D4:
   * E. Caldeweyher, C. Bannwarth and S. Grimme, J. Chem. Phys., 2017,
     147, 034112. DOI: 10.1063/1.4993215
   * E. Caldeweyher, S. Ehlert, A. Hansen, H. Neugebauer, S. Spicher,
     C. Bannwarth and S. Grimme, J. Chem. Phys., 2019, 150, 154122.
     DOI: 10.1063/1.5090222
   * E. Caldeweyher, J.-M. Mewes, S. Ehlert and S. Grimme, Phys. Chem. Chem. Phys.
     2020, 22, 8499-8512. DOI: 10.1039/D0CP00502A
   
   for sTDA-xTB:
   * S. Grimme and C. Bannwarth, J. Chem. Phys., 2016, 145, 054103.
     DOI: 10.1063/1.4959605
   
   in the mass-spec context:
   * V. Asgeirsson, C. Bauer and S. Grimme, Chem. Sci., 2017, 8, 4879.
     DOI: 10.1039/c7sc00601b
   * J. Koopman and S. Grimme, ACS Omega 2019, 4, 12, 15120-15133.
     DOI: 10.1021/acsomega.9b02011
   
   for metadynamics refer to:
   * S. Grimme, J. Chem. Theory Comput., 2019, 155, 2847-2862
     DOI: 10.1021/acs.jctc.9b00143
   
   for SPH calculations refer to:
   * S. Spicher and S. Grimme, J. Chem. Theory Comput., 2021, 17, 1701-1714
     DOI: 10.1021/acs.jctc.0c01306
   
   with help from (in alphabetical order)
   P. Atkinson, C. Bannwarth, F. Bohle, G. Brandenburg, E. Caldeweyher
   M. Checinski, S. Dohm, S. Ehlert, S. Ehrlich, I. Gerasimov, C. Hölzer
   A. Katbashev, J. Koopman, C. Lavigne, S. Lehtola, F. März, M. Müller,
   F. Musil, H. Neugebauer, J. Pisarek, C. Plett, P. Pracht, F. Pultar,
   J. Seibert, P. Shushkov, S. Spicher, M. Stahn, M. Steiner, T. Strunk,
   J. Stückrath, T. Rose, and J. Unsleber
   
 * started run on 2024/05/28 at 10:40:39.083     

           -------------------------------------------------
          |                Calculation Setup                |
           -------------------------------------------------

          program call               : xtb --norestart --input xtb.inp tmp.xyz
          coordinate file            : tmp.xyz
          omp threads                :                     1

   ID    Z sym.   atoms
    1    7 N      1, 9, 16, 28, 38, 42, 51, 59, 68, 76, 84, 85, 91, 93, 101,
                  109, 116, 118, 129, 136, 145, 153, 161, 169, 170, 177, 184,
                  186, 193, 195, 196, 202, 209, 211-213
    2    6 C      2, 3, 5-8, 10, 11, 13-15, 17, 18, 20-26, 29, 30, 32-37,
                  39-41, 43, 44, 46-48, 52, 53, 55, 56, 58, 60, 61, 63-65,
                  69, 70, 72, 73, 77, 78, 80-83, 86, 87, 89, 90, 94, 95,
                  97-100, 102, 103, 105-108, 110, 111, 113-115, 119, 120,
                  122-128, 130, 131, 133-135, 137, 138, 140-142, 146, 147,
                  149, 150, 154, 155, 157-160, 162, 163, 165-168, 171, 172,
                  174-176, 178, 179, 181-183, 187, 188, 190-192, 194, 197,
                  198, 200, 203, 204, 206-208, 210, 214, 215, 217, 218, 220
    3    8 O      4, 12, 19, 27, 31, 45, 49, 50, 54, 62, 66, 67, 71, 74, 75,
                  79, 88, 92, 96, 104, 112, 117, 121, 132, 139, 143, 144,
                  148, 151, 152, 156, 164, 173, 180, 185, 189, 199, 201, 205,
                  216
    4   16 S      57, 219

molecular fragmentation (1/2 indicates fragments):
111111111111111111111111111111111111111111111111111111111111111111111111
111111111111111111111111111111111111111111111111111111111111111222222222
222222222222222222222222222222222222222222222222222222222222222222222222
2222
# atoms in fragment 1/2:   135    85
 fragment masses (1/2) :     1775.15     1138.72
CMA distance (Bohr)    :   9.726
constraining FC (au)   :  0.0500

           -------------------------------------------------
          |                 G F N 2 - x T B                 |
           -------------------------------------------------

        Reference                      10.1021/acs.jctc.8b01176
      * Hamiltonian:
        H0-scaling (s, p, d)           1.850000    2.230000    2.230000
        zeta-weighting                 0.500000
      * Dispersion:
        s8                             2.700000
        a1                             0.520000
        a2                             5.000000
        s9                             5.000000
      * Repulsion:
        kExp                           1.500000    1.000000
        rExp                           1.000000
      * Coulomb:
        alpha                          2.000000
        third order                    shell-resolved
        anisotropic                    true
        a3                             3.000000
        a5                             4.000000
        cn-shift                       1.200000
        cn-exp                         4.000000
        max-rad                        5.000000


          ...................................................
          :                      SETUP                      :
          :.................................................:
          :  # basis functions                 892          :
          :  # atomic orbitals                 890          :
          :  # shells                          442          :
          :  # electrons                      1000          :
          :  max. iterations                   250          :
          :  Hamiltonian                  GFN2-xTB          :
          :  restarted?                      false          :
          :  GBSA solvation                  false          :
          :  PC potential                    false          :
          :  electronic temp.          300.0000000     K    :
          :  accuracy                    1.0000000          :
          :  -> integral cutoff          0.2500000E+02      :
          :  -> integral neglect         0.1000000E-07      :
          :  -> SCF convergence          0.1000000E-05 Eh   :
          :  -> wf. convergence          0.1000000E-03 e    :
          :  Broyden damping             0.4000000          :
          ...................................................

 iter      E             dE          RMSdq      gap      omega  full diag
   1   -557.4465946 -0.557447E+03  0.994E+00    0.00       0.0  T
   2     57.3750028  0.614822E+03  0.168E+01    0.03       1.0  T
   3   2930.8935200  0.287352E+04  0.275E+01    0.13       1.0  T
   4    557.8770132 -0.237302E+04  0.199E+01    0.03       1.0  T
   5   -376.4675223 -0.934345E+03  0.124E+01    0.01       1.0  T
   6   -304.4545657  0.720130E+02  0.113E+01    0.01       1.0  T
   7   -253.9701608  0.504844E+02  0.111E+01    0.02       1.0  T
   8   -428.6844403 -0.174714E+03  0.971E+00    0.00       1.0  T
   9   -494.1331043 -0.654487E+02  0.817E+00    0.02       1.0  T
  10   -494.5671368 -0.434033E+00  0.789E+00    0.00       1.0  T
  11   -507.0623055 -0.124952E+02  0.693E+00    0.03       1.0  T
  12   -479.8257855  0.272365E+02  0.796E+00    0.00       1.0  T
  13   -422.1344777  0.576913E+02  0.855E+00    0.01       1.0  T
  14   -499.8144787 -0.776800E+02  0.716E+00    0.03       1.0  T
  15   -524.2797475 -0.244653E+02  0.689E+00    0.01       1.0  T
  16   -540.7390583 -0.164593E+02  0.633E+00    0.03       1.0  T
  17   -548.5567699 -0.781771E+01  0.583E+00    0.00       1.0  T
  18   -543.8700796  0.468669E+01  0.603E+00    0.01       1.0  T
  19   -556.7610305 -0.128910E+02  0.484E+00    0.01       1.0  T
  20   -551.4148502  0.534618E+01  0.517E+00    0.00       1.0  T
  21   -553.8033416 -0.238849E+01  0.502E+00    0.00       1.0  T
  22   -555.4035895 -0.160025E+01  0.488E+00    0.01       1.0  T
  23   -553.2174275  0.218616E+01  0.509E+00    0.02       1.0  T
  24   -554.7331296 -0.151570E+01  0.476E+00    0.02       1.0  T
  25   -552.4562805  0.227685E+01  0.488E+00    0.01       1.0  T
  26   -553.9239898 -0.146771E+01  0.483E+00    0.01       1.0  T
  27   -553.5967286  0.327261E+00  0.488E+00    0.03       1.0  T
  28   -550.0588178  0.353791E+01  0.516E+00    0.01       1.0  T
  29   -547.3343758  0.272444E+01  0.538E+00    0.00       1.0  T
  30   -547.3529767 -0.186010E-01  0.537E+00    0.00       1.0  T
  31   -547.4132782 -0.603015E-01  0.538E+00    0.03       1.0  T
  32   -546.8678116  0.545467E+00  0.546E+00    0.03       1.0  T
  33   -547.1329419 -0.265130E+00  0.542E+00    0.00       1.0  T
  34   -546.9006201  0.232322E+00  0.544E+00    0.01       1.0  T
  35   -547.1876505 -0.287030E+00  0.544E+00    0.02       1.0  T
  36   -546.2981842  0.889466E+00  0.545E+00    0.02       1.0  T
  37   -549.9718190 -0.367363E+01  0.521E+00    0.05       1.0  T
  38   -554.5298868 -0.455807E+01  0.503E+00    0.01       1.0  T
  39   -553.6522475  0.877639E+00  0.502E+00    0.01       1.0  T
  40   -549.0971253  0.455512E+01  0.514E+00    0.01       1.0  T
  41   -557.0791401 -0.798201E+01  0.512E+00    0.02       1.0  T
  42   -558.3035467 -0.122441E+01  0.472E+00    0.01       1.0  T
  43   -557.3284756  0.975071E+00  0.491E+00    0.01       1.0  T
  44   -552.4825682  0.484591E+01  0.526E+00    0.05       1.0  T
  45   -556.9781045 -0.449554E+01  0.492E+00    0.01       1.0  T
  46   -553.2019503  0.377615E+01  0.510E+00    0.00       1.0  T
  47   -555.9321528 -0.273020E+01  0.491E+00    0.02       1.0  T
  48   -558.5856974 -0.265354E+01  0.466E+00    0.01       1.0  T
  49   -555.7773489  0.280835E+01  0.477E+00    0.03       1.0  T
  50   -556.1025592 -0.325210E+00  0.475E+00    0.00       1.0  T
  51   -558.9497961 -0.284724E+01  0.465E+00    0.00       1.0  T
  52   -557.0409797  0.190882E+01  0.461E+00    0.01       1.0  T
  53   -559.5224238 -0.248144E+01  0.436E+00    0.00       1.0  T
  54   -559.5283870 -0.596318E-02  0.446E+00    0.00       1.0  T
  55   -559.7130577 -0.184671E+00  0.415E+00    0.00       1.0  T
  56   -561.7837224 -0.207066E+01  0.397E+00    0.01       1.0  T
  57   -559.1207858  0.266294E+01  0.451E+00    0.00       1.0  T
  58   -559.1529448 -0.321590E-01  0.450E+00    0.00       1.0  T
  59   -558.6354365  0.517508E+00  0.453E+00    0.01       1.0  T
  60   -558.6670086 -0.315721E-01  0.452E+00    0.01       1.0  T
  61   -558.7080449 -0.410364E-01  0.451E+00    0.01       1.0  T
  62   -557.0896578  0.161839E+01  0.472E+00    0.01       1.0  T
  63   -559.2095098 -0.211985E+01  0.443E+00    0.02       1.0  T
  64   -559.5769275 -0.367418E+00  0.439E+00    0.02       1.0  T
  65   -558.8144099  0.762518E+00  0.444E+00    0.01       1.0  T
  66   -560.8650523 -0.205064E+01  0.420E+00    0.00       1.0  T
  67   -558.6174813  0.224757E+01  0.433E+00    0.01       1.0  T
  68   -561.5789679 -0.296149E+01  0.403E+00    0.01       1.0  T
  69   -563.5585520 -0.197958E+01  0.368E+00    0.00       1.0  T
  70   -562.1790534  0.137950E+01  0.391E+00    0.01       1.0  T
  71   -562.2030861 -0.240327E-01  0.391E+00    0.01       1.0  T
  72   -562.2728630 -0.697769E-01  0.389E+00    0.01       1.0  T
  73   -562.2650079  0.785515E-02  0.393E+00    0.00       1.0  T
  74   -560.9759373  0.128907E+01  0.400E+00    0.00       1.0  T
  75   -562.7946827 -0.181875E+01  0.386E+00    0.00       1.0  T
  76   -561.8623306  0.932352E+00  0.389E+00    0.01       1.0  T
  77   -562.0955401 -0.233210E+00  0.379E+00    0.00       1.0  T
  78   -563.9872396 -0.189170E+01  0.368E+00    0.02       1.0  T
  79   -563.2315835  0.755656E+00  0.364E+00    0.01       1.0  T
  80   -563.4440720 -0.212489E+00  0.358E+00    0.00       1.0  T
  81   -564.6477870 -0.120371E+01  0.355E+00    0.01       1.0  T
  82   -565.3193422 -0.671555E+00  0.327E+00    0.01       1.0  T
  83   -564.7183155  0.601027E+00  0.340E+00    0.01       1.0  T
  84   -565.1921873 -0.473872E+00  0.323E+00    0.01       1.0  T
  85   -565.3274911 -0.135304E+00  0.301E+00    0.00       1.0  T
  86   -565.1251391  0.202352E+00  0.297E+00    0.01       1.0  T
  87   -567.5520160 -0.242688E+01  0.260E+00    0.01       1.0  T
  88   -567.6933910 -0.141375E+00  0.253E+00    0.00       1.0  T
  89   -568.1127982 -0.419407E+00  0.242E+00    0.01       1.0  T
  90   -568.0366450  0.761532E-01  0.244E+00    0.00       1.0  T
  91   -567.9892823  0.473628E-01  0.245E+00    0.00       1.0  T
  92   -567.7637192  0.225563E+00  0.252E+00    0.00       1.0  T
  93   -567.7971385 -0.334193E-01  0.251E+00    0.01       1.0  T
  94   -567.7203537  0.767848E-01  0.255E+00    0.00       1.0  T
  95   -567.7882772 -0.679235E-01  0.248E+00    0.01       1.0  T
  96   -566.8910007  0.897277E+00  0.251E+00    0.00       1.0  T
  97   -566.3314535  0.559547E+00  0.231E+00    0.01       1.0  T
  98   -566.7231165 -0.391663E+00  0.227E+00    0.01       1.0  T
  99   -566.9515439 -0.228427E+00  0.222E+00    0.00       1.0  T
 100   -566.4306421  0.520902E+00  0.230E+00    0.00       1.0  T
 101   -566.4055629  0.250792E-01  0.227E+00    0.00       1.0  T
 102   -566.5758473 -0.170284E+00  0.239E+00    0.00       1.0  T
 103   -567.1788240 -0.602977E+00  0.222E+00    0.00       1.0  T
 104   -567.3581989 -0.179375E+00  0.199E+00    0.01       1.0  T
 105   -568.3321979 -0.973999E+00  0.184E+00    0.00       1.0  T
 106   -568.1077000  0.224498E+00  0.183E+00    0.01       1.0  T
 107   -568.0115318  0.961682E-01  0.186E+00    0.01       1.0  T
 108   -568.3387067 -0.327175E+00  0.174E+00    0.01       1.0  T
 109   -569.1672975 -0.828591E+00  0.139E+00    0.01       1.0  T
 110   -569.1568094  0.104880E-01  0.139E+00    0.01       1.0  T
 111   -569.1801809 -0.233714E-01  0.131E+00    0.01       1.0  T
 112   -569.3534968 -0.173316E+00  0.130E+00    0.00       1.0  T
 113   -569.5715460 -0.218049E+00  0.117E+00    0.00       1.0  T
 114   -569.4939857  0.775604E-01  0.113E+00    0.00       1.0  T
 115   -569.5930674 -0.990817E-01  0.106E+00    0.01       1.0  T
 116   -569.5569987  0.360687E-01  0.112E+00    0.00       1.0  T
 117   -569.6763696 -0.119371E+00  0.101E+00    0.01       1.0  T
 118   -569.8160504 -0.139681E+00  0.964E-01    0.00       1.0  T
 119   -569.9719553 -0.155905E+00  0.825E-01    0.00       1.0  T
 120   -569.9428331  0.291223E-01  0.849E-01    0.00       1.0  T
 121   -569.9509454 -0.811227E-02  0.839E-01    0.00       1.0  T
 122   -569.9611727 -0.102273E-01  0.829E-01    0.00       1.0  T
 123   -569.9807890 -0.196163E-01  0.797E-01    0.00       1.0  T
 124   -569.9757977  0.499126E-02  0.725E-01    0.00       1.0  T
 125   -570.0348950 -0.590973E-01  0.689E-01    0.01       1.0  T
 126   -570.0136951  0.212000E-01  0.663E-01    0.00       1.0  T
 127   -570.0751682 -0.614732E-01  0.662E-01    0.01       1.0  T
 128   -570.0455605  0.296078E-01  0.657E-01    0.00       1.0  T
 129   -570.0875602 -0.419997E-01  0.596E-01    0.00       1.0  T
 130   -570.1064067 -0.188465E-01  0.575E-01    0.00       1.0  T
 131   -570.1307146 -0.243079E-01  0.536E-01    0.00       1.0  T
 132   -570.1465764 -0.158618E-01  0.470E-01    0.00       1.0  T
 133   -570.1896612 -0.430847E-01  0.415E-01    0.00       1.0  T
 134   -570.1782326  0.114286E-01  0.434E-01    0.00       1.0  T
 135   -570.1829897 -0.475705E-02  0.431E-01    0.00       1.0  T
 136   -570.2013583 -0.183687E-01  0.411E-01    0.00       1.0  T
 137   -570.2388621 -0.375038E-01  0.364E-01    0.01       1.0  T
 138   -570.2476702 -0.880814E-02  0.329E-01    0.01       1.0  T
 139   -570.2497114 -0.204116E-02  0.329E-01    0.01       1.0  T
 140   -570.2651742 -0.154628E-01  0.292E-01    0.01       1.0  T
 141   -570.2702886 -0.511440E-02  0.265E-01    0.01       1.0  T
 142   -570.2694465  0.842075E-03  0.263E-01    0.01       1.0  T
 143   -570.2598348  0.961180E-02  0.290E-01    0.01       1.0  T
 144   -570.2655466 -0.571185E-02  0.259E-01    0.01       1.0  T
 145   -570.2747916 -0.924505E-02  0.229E-01    0.01       1.0  T
 146   -570.2759534 -0.116177E-02  0.221E-01    0.01       1.0  T
 147   -570.2747346  0.121881E-02  0.224E-01    0.00       1.0  T
 148   -570.2775592 -0.282463E-02  0.218E-01    0.01       1.0  T
 149   -570.2798894 -0.233012E-02  0.208E-01    0.01       1.0  T
 150   -570.2897388 -0.984947E-02  0.172E-01    0.01       1.0  T
 151   -570.2909257 -0.118689E-02  0.163E-01    0.01       1.0  T
 152   -570.2926948 -0.176906E-02  0.152E-01    0.01       1.0  T
 153   -570.2929345 -0.239745E-03  0.150E-01    0.01       1.0  T
 154   -570.2948557 -0.192115E-02  0.137E-01    0.01       1.0  T
 155   -570.2955497 -0.694033E-03  0.124E-01    0.01       1.0  T
 156   -570.2973344 -0.178469E-02  0.110E-01    0.01       1.0  T
 157   -570.2989424 -0.160801E-02  0.887E-02    0.01       1.0  T
 158   -570.3000882 -0.114575E-02  0.809E-02    0.01       1.0  T
 159   -570.2997892  0.298929E-03  0.799E-02    0.01       1.0  T
 160   -570.2987818  0.100739E-02  0.864E-02    0.01       1.0  T
 161   -570.2998562 -0.107435E-02  0.739E-02    0.01       1.0  T
 162   -570.3004436 -0.587449E-03  0.691E-02    0.01       1.0  T
 163   -570.3009974 -0.553737E-03  0.588E-02    0.01       1.0  T
 164   -570.3014080 -0.410634E-03  0.510E-02    0.01       1.0  T
 165   -570.3018497 -0.441653E-03  0.423E-02    0.01       1.0  T
 166   -570.3020412 -0.191522E-03  0.403E-02    0.01       1.0  T
 167   -570.3019122  0.128972E-03  0.400E-02    0.01       1.0  T
 168   -570.3022203 -0.308108E-03  0.349E-02    0.01       1.0  T
 169   -570.3022328 -0.124926E-04  0.337E-02    0.01       1.0  T
 170   -570.3023769 -0.144067E-03  0.300E-02    0.01       1.0  T
 171   -570.3025651 -0.188160E-03  0.262E-02    0.01       1.0  T
 172   -570.3026342 -0.691658E-04  0.236E-02    0.01       1.0  T
 173   -570.3026991 -0.649061E-04  0.216E-02    0.01       1.0  T
 174   -570.3027090 -0.991709E-05  0.199E-02    0.01       1.0  T
 175   -570.3027342 -0.251758E-04  0.184E-02    0.01       1.0  T
 176   -570.3027863 -0.521269E-04  0.168E-02    0.01       1.0  T
 177   -570.3027720  0.143516E-04  0.171E-02    0.01       1.0  T
 178   -570.3027837 -0.117500E-04  0.162E-02    0.01       1.0  T
 179   -570.3027780  0.578955E-05  0.159E-02    0.01       1.0  T
 180   -570.3027850 -0.709560E-05  0.147E-02    0.01       1.0  T
 181   -570.3027735  0.115302E-04  0.144E-02    0.01       1.0  T
 182   -570.3027935 -0.199575E-04  0.132E-02    0.01       1.0  T
 183   -570.3028119 -0.183809E-04  0.122E-02    0.01       1.0  T
 184   -570.3028304 -0.185725E-04  0.114E-02    0.01       1.0  T
 185   -570.3028658 -0.353986E-04  0.839E-03    0.01       1.0  T
 186   -570.3028657  0.771984E-07  0.837E-03    0.01       1.0  T
 187   -570.3028730 -0.721363E-05  0.768E-03    0.01       1.0  T
 188   -570.3028767 -0.369457E-05  0.715E-03    0.01       1.0  T
 189   -570.3028802 -0.359099E-05  0.645E-03    0.01       1.0  T
 190   -570.3028823 -0.208175E-05  0.597E-03    0.01       1.1  T
 191   -570.3028832 -0.900989E-06  0.568E-03    0.01       1.2  T
 192   -570.3028834 -0.169743E-06  0.559E-03    0.01       1.2  T
 193   -570.3028869 -0.345338E-05  0.502E-03    0.01       1.3  T
 194   -570.3028870 -0.124887E-06  0.491E-03    0.01       1.4  T
 195   -570.3028890 -0.205848E-05  0.457E-03    0.01       1.5  T
 196   -570.3028910 -0.195465E-05  0.413E-03    0.01       1.6  T
 197   -570.3028940 -0.305608E-05  0.330E-03    0.01       2.0  T
 198   -570.3028960 -0.197366E-05  0.259E-03    0.01       2.6  T
 199   -570.3028971 -0.112488E-05  0.216E-03    0.01       3.1  T
 200   -570.3028980 -0.807891E-06  0.172E-03    0.01       3.9  T
 201   -570.3028979  0.840236E-07  0.155E-03    0.01       4.3  T
 202   -570.3028978  0.231930E-07  0.148E-03    0.01       4.6  T
 203   -570.3028975  0.379212E-06  0.152E-03    0.01       4.4  T
 204   -570.3028981 -0.660720E-06  0.122E-03    0.01       5.5  T
 205   -570.3028980  0.133312E-06  0.128E-03    0.01       5.3  T
 206   -570.3028985 -0.459510E-06  0.104E-03    0.01       6.5  T
 207   -570.3028986 -0.145167E-06  0.897E-04    0.01       7.5  T
 208   -570.3028988 -0.226166E-06  0.658E-04    0.01      10.2  T

   *** convergence criteria satisfied after 208 iterations ***

         #    Occupation            Energy/Eh            Energy/eV
      -------------------------------------------------------------
         1        2.0000           -0.8340441             -22.6955
       ...           ...                  ...                  ...
       494        1.5338           -0.4560153             -12.4088
       495        1.3596           -0.4555992             -12.3975
       496        1.2974           -0.4554665             -12.3939
       497        1.2507           -0.4553706             -12.3913
       498        1.2313           -0.4553314             -12.3902
       499        1.0891           -0.4550536             -12.3826
       500        1.0826           -0.4550410             -12.3823 (HOMO)
       501        0.9479           -0.4547848             -12.3753 (LUMO)
       502        0.8048           -0.4545081             -12.3678
       503        0.7628           -0.4544244             -12.3655
       504        0.7449           -0.4543882             -12.3645
       505        0.6978           -0.4542912             -12.3619
       ...           ...                  ...                  ...
       890                          0.5785106              15.7421
      -------------------------------------------------------------
                  HL-Gap            0.0002562 Eh            0.0070 eV
             Fermi-level           -0.4548838 Eh          -12.3780 eV

 SCC (total)                   0 d,  0 h,  0 min, 30.460 sec
 SCC setup                      ...        0 min,  0.003 sec (  0.011%)
 Dispersion                     ...        0 min,  0.012 sec (  0.039%)
 classical contributions        ...        0 min,  0.001 sec (  0.005%)
 integral evaluation            ...        0 min,  0.100 sec (  0.328%)
 iterations                     ...        0 min, 29.791 sec ( 97.804%)
 molecular gradient             ...        0 min,  0.530 sec (  1.741%)
 printout                       ...        0 min,  0.022 sec (  0.073%)

         :::::::::::::::::::::::::::::::::::::::::::::::::::::
         ::                     SUMMARY                     ::
         :::::::::::::::::::::::::::::::::::::::::::::::::::::
         :: total energy            -565.842404188671 Eh    ::
         :: gradient norm              1.691288364701 Eh/a0 ::
         :: HOMO-LUMO gap              0.006971791832 eV    ::
         ::.................................................::
         :: SCC energy              -570.302898826907 Eh    ::
         :: -> isotropic ES            0.873781527738 Eh    ::
         :: -> anisotropic ES         -0.026176386950 Eh    ::
         :: -> anisotropic XC          0.305327424175 Eh    ::
         :: -> dispersion             -0.398079598563 Eh    ::
         :: repulsion energy           4.434364757812 Eh    ::
         :: add. restraining           0.000000000000 Eh    ::
         :: total charge               0.000000000000 e     ::
         :::::::::::::::::::::::::::::::::::::::::::::::::::::

           -------------------------------------------------
          |                Property Printout                |
           -------------------------------------------------

    * Orbital Energies and Occupations

         #    Occupation            Energy/Eh            Energy/eV
      -------------------------------------------------------------
         1        2.0000           -0.8340441             -22.6955
       ...           ...                  ...                  ...
       488        1.8023           -0.4569835             -12.4352
       489        1.7913           -0.4569262             -12.4336
       490        1.7692           -0.4568188             -12.4307
       491        1.7135           -0.4565829             -12.4243
       492        1.6148           -0.4562453             -12.4151
       493        1.5726           -0.4561216             -12.4117
       494        1.5338           -0.4560153             -12.4088
       495        1.3596           -0.4555992             -12.3975
       496        1.2974           -0.4554665             -12.3939
       497        1.2507           -0.4553706             -12.3913
       498        1.2313           -0.4553314             -12.3902
       499        1.0891           -0.4550536             -12.3826
       500        1.0826           -0.4550410             -12.3823 (HOMO)
       501        0.9479           -0.4547848             -12.3753 (LUMO)
       502        0.8048           -0.4545081             -12.3678
       503        0.7628           -0.4544244             -12.3655
       504        0.7449           -0.4543882             -12.3645
       505        0.6978           -0.4542912             -12.3619
       506        0.6560           -0.4542025             -12.3595
       507        0.4984           -0.4538360             -12.3495
       508        0.4196           -0.4536239             -12.3437
       509        0.3851           -0.4535220             -12.3410
       510        0.3506           -0.4534128             -12.3380
       511        0.3347           -0.4533593             -12.3365
       ...           ...                  ...                  ...
       890                          0.5785106              15.7421
      -------------------------------------------------------------
                  HL-Gap            0.0002562 Eh            0.0070 eV
             Fermi-level           -0.4548838 Eh          -12.3780 eV

molecular dipole:
                 x           y           z       tot (Debye)
 q only:        5.344       6.642       3.650
   full:        5.020       5.713       2.915      20.703
molecular quadrupole (traceless):
                xx          xy          yy          xz          yz          zz
 q only:      224.503     100.988      47.861    -185.589    -329.725    -272.364
  q+dip:      180.986     123.483      64.838    -185.274    -307.311    -245.823
   full:      177.952     123.084      63.516    -176.744    -312.709    -241.468


 cube file module (SG, 7/16)
 cube_pthr     :   0.050
 cube_step     :   0.945
 cube_boundoffset     :   3.000
 non-zero P (%):   2.235   nmat:    8900
 Grid Boundaries (x y z) :
   28.781533518196671        22.152374273028162        7.1819639137850348     
  -8.4802057613992758       -30.259299347649854       -40.611219058320621     
 Total # of points      114240
 writing density.cub
 N    (numint) : ******
cpu  time for cube   10.34 s
wall time for cube   10.34 s

           -------------------------------------------------
          | TOTAL ENERGY             -565.842404188671 Eh   |
          | GRADIENT NORM               1.691288364701 Eh/α |
          | HOMO-LUMO GAP               0.006971791832 eV   |
           -------------------------------------------------

------------------------------------------------------------------------
 * finished run on 2024/05/28 at 10:41:19.999     
------------------------------------------------------------------------
 total:
 * wall-time:     0 d,  0 h,  0 min, 40.916 sec
 *  cpu-time:     0 d,  0 h,  0 min, 40.908 sec
 * ratio c/w:     1.000 speedup
 SCF:
 * wall-time:     0 d,  0 h,  0 min, 30.462 sec
 *  cpu-time:     0 d,  0 h,  0 min, 30.461 sec
 * ratio c/w:     1.000 speedup

