      -----------------------------------------------------------      
     |                   =====================                   |     
     |                           x T B                           |     
     |                   =====================                   |     
     |                         S. Grimme                         |     
     |          Mulliken Center for Theoretical Chemistry        |     
     |                    University of Bonn                     |     
      -----------------------------------------------------------      

   * xtb version 6.6.0 (2ccbbd7) compiled by 'conda@6fe65c42fc39' on 2023-02-10

   xtb is free software: you can redistribute it and/or modify it under
   the terms of the GNU Lesser General Public License as published by
   the Free Software Foundation, either version 3 of the License, or
   (at your option) any later version.
   
   xtb is distributed in the hope that it will be useful,
   but WITHOUT ANY WARRANTY; without even the implied warranty of
   MERCHANTABILITY or FITNESS FOR A PARTICULAR PURPOSE.  See the
   GNU Lesser General Public License for more details.
   
   Cite this work as:
   * C. Bannwarth, E. Caldeweyher, S. Ehlert, A. Hansen, P. Pracht,
     J. Seibert, S. Spicher, S. Grimme, WIREs Comput. Mol. Sci., 2020, 11,
     e01493. DOI: 10.1002/wcms.1493
   
   for GFN2-xTB:
   * C. Bannwarth, S. Ehlert and S. Grimme., J. Chem. Theory Comput., 2019,
     15, 1652-1671. DOI: 10.1021/acs.jctc.8b01176
   for GFN1-xTB:
   * S. Grimme, C. Bannwarth, P. Shushkov, J. Chem. Theory Comput., 2017,
     13, 1989-2009. DOI: 10.1021/acs.jctc.7b00118
   for GFN0-xTB:
   * P. Pracht, E. Caldeweyher, S. Ehlert, S. Grimme, ChemRxiv, 2019, preprint.
     DOI: 10.26434/chemrxiv.8326202.v1
   for GFN-FF:
   * S. Spicher and S. Grimme, Angew. Chem. Int. Ed., 2020, 59, 15665-15673.
     DOI: 10.1002/anie.202004239
   
   for ALPB and GBSA implicit solvation:
   * S. Ehlert, M. Stahn, S. Spicher, S. Grimme, J. Chem. Theory Comput.,
     2021, 17, 4250-4261. DOI: 10.1021/acs.jctc.1c00471
   
   for DFT-D4:
   * E. Caldeweyher, C. Bannwarth and S. Grimme, J. Chem. Phys., 2017,
     147, 034112. DOI: 10.1063/1.4993215
   * E. Caldeweyher, S. Ehlert, A. Hansen, H. Neugebauer, S. Spicher,
     C. Bannwarth and S. Grimme, J. Chem. Phys., 2019, 150, 154122.
     DOI: 10.1063/1.5090222
   * E. Caldeweyher, J.-M. Mewes, S. Ehlert and S. Grimme, Phys. Chem. Chem. Phys.
     2020, 22, 8499-8512. DOI: 10.1039/D0CP00502A
   
   for sTDA-xTB:
   * S. Grimme and C. Bannwarth, J. Chem. Phys., 2016, 145, 054103.
     DOI: 10.1063/1.4959605
   
   in the mass-spec context:
   * V. Asgeirsson, C. Bauer and S. Grimme, Chem. Sci., 2017, 8, 4879.
     DOI: 10.1039/c7sc00601b
   * J. Koopman and S. Grimme, ACS Omega 2019, 4, 12, 15120-15133.
     DOI: 10.1021/acsomega.9b02011
   
   for metadynamics refer to:
   * S. Grimme, J. Chem. Theory Comput., 2019, 155, 2847-2862
     DOI: 10.1021/acs.jctc.9b00143
   
   for SPH calculations refer to:
   * S. Spicher and S. Grimme, J. Chem. Theory Comput., 2021, 17, 1701-1714
     DOI: 10.1021/acs.jctc.0c01306
   
   with help from (in alphabetical order)
   P. Atkinson, C. Bannwarth, F. Bohle, G. Brandenburg, E. Caldeweyher
   M. Checinski, S. Dohm, S. Ehlert, S. Ehrlich, I. Gerasimov, C. Hölzer
   A. Katbashev, J. Koopman, C. Lavigne, S. Lehtola, F. März, M. Müller,
   F. Musil, H. Neugebauer, J. Pisarek, C. Plett, P. Pracht, F. Pultar,
   J. Seibert, P. Shushkov, S. Spicher, M. Stahn, M. Steiner, T. Strunk,
   J. Stückrath, T. Rose, and J. Unsleber
   
 * started run on 2024/04/26 at 16:51:03.872     

           -------------------------------------------------
          |                Calculation Setup                |
           -------------------------------------------------

          program call               : xtb --norestart --input xtb.inp tmp.xyz
          coordinate file            : tmp.xyz
          omp threads                :                     1

   ID    Z sym.   atoms
    1    7 N      1, 10, 20
    2    6 C      2-4, 6-9, 11, 12, 15, 16, 18, 19, 21
    3    8 O      5, 13, 14, 17, 22, 24-26
    4   15 P      23

           -------------------------------------------------
          |                 G F N 2 - x T B                 |
           -------------------------------------------------

        Reference                      10.1021/acs.jctc.8b01176
      * Hamiltonian:
        H0-scaling (s, p, d)           1.850000    2.230000    2.230000
        zeta-weighting                 0.500000
      * Dispersion:
        s8                             2.700000
        a1                             0.520000
        a2                             5.000000
        s9                             5.000000
      * Repulsion:
        kExp                           1.500000    1.000000
        rExp                           1.000000
      * Coulomb:
        alpha                          2.000000
        third order                    shell-resolved
        anisotropic                    true
        a3                             3.000000
        a5                             4.000000
        cn-shift                       1.200000
        cn-exp                         4.000000
        max-rad                        5.000000


          ...................................................
          :                      SETUP                      :
          :.................................................:
          :  # basis functions                 110          :
          :  # atomic orbitals                 109          :
          :  # shells                           53          :
          :  # electrons                       124          :
          :  max. iterations                   250          :
          :  Hamiltonian                  GFN2-xTB          :
          :  restarted?                      false          :
          :  GBSA solvation                  false          :
          :  PC potential                    false          :
          :  electronic temp.          300.0000000     K    :
          :  accuracy                    1.0000000          :
          :  -> integral cutoff          0.2500000E+02      :
          :  -> integral neglect         0.1000000E-07      :
          :  -> SCF convergence          0.1000000E-05 Eh   :
          :  -> wf. convergence          0.1000000E-03 e    :
          :  Broyden damping             0.4000000          :
          ...................................................

 iter      E             dE          RMSdq      gap      omega  full diag
   1    -71.9247833 -0.719248E+02  0.105E+01    0.21       0.0  T
   2    -53.1299932  0.187948E+02  0.159E+01    0.28       1.0  T
   3    -64.4925219 -0.113625E+02  0.108E+01    0.22       1.0  T
   4    -63.5647936  0.927728E+00  0.114E+01    0.36       1.0  T
   5    -69.4754234 -0.591063E+01  0.827E+00    0.20       1.0  T
   6    -71.0598361 -0.158441E+01  0.652E+00    0.22       1.0  T
   7    -70.4370553  0.622781E+00  0.715E+00    0.38       1.0  T
   8    -72.1671554 -0.173010E+01  0.464E+00    0.28       1.0  T
   9    -72.1242072  0.429482E-01  0.436E+00    0.34       1.0  T
  10    -71.6652325  0.458975E+00  0.535E+00    0.17       1.0  T
  11    -72.3833113 -0.718079E+00  0.369E+00    0.25       1.0  T
  12    -71.9913357  0.391976E+00  0.452E+00    0.04       1.0  T
  13    -72.3331933 -0.341858E+00  0.384E+00    0.07       1.0  T
  14    -72.6660405 -0.332847E+00  0.261E+00    0.07       1.0  T
  15    -72.6103927  0.556478E-01  0.274E+00    0.17       1.0  T
  16    -72.7014848 -0.910920E-01  0.241E+00    0.12       1.0  T
  17    -69.4781265  0.322336E+01  0.698E+00    0.21       1.0  T
  18    -71.8872150 -0.240909E+01  0.439E+00    0.06       1.0  T
  19    -70.7095711  0.117764E+01  0.571E+00    0.03       1.0  T
  20    -70.2987601  0.410811E+00  0.611E+00    0.06       1.0  T
  21    -71.1624540 -0.863694E+00  0.518E+00    0.01       1.0  T
  22    -72.5340780 -0.137162E+01  0.329E+00    0.05       1.0  T
  23    -72.6361580 -0.102080E+00  0.287E+00    0.06       1.0  T
  24    -72.5400269  0.961311E-01  0.301E+00    0.01       1.0  T
  25    -71.8119259  0.728101E+00  0.431E+00    0.12       1.0  T
  26    -71.9040780 -0.921522E-01  0.427E+00    0.11       1.0  T
  27    -71.9873978 -0.833198E-01  0.423E+00    0.11       1.0  T
  28    -71.9544358  0.329620E-01  0.423E+00    0.11       1.0  T
  29    -72.5402831 -0.585847E+00  0.311E+00    0.05       1.0  T
  30    -72.5252317  0.150514E-01  0.309E+00    0.05       1.0  T
  31    -72.8149752 -0.289744E+00  0.209E+00    0.04       1.0  T
  32    -72.7219230  0.930522E-01  0.245E+00    0.02       1.0  T
  33    -73.0197976 -0.297875E+00  0.126E+00    0.00       1.0  T
  34    -73.0048882  0.149094E-01  0.139E+00    0.00       1.0  T
  35    -73.0263601 -0.214719E-01  0.128E+00    0.01       1.0  T
  36    -73.0556368 -0.292768E-01  0.111E+00    0.04       1.0  T
  37    -72.6378735  0.417763E+00  0.254E+00    0.01       1.0  T
  38    -73.0074975 -0.369624E+00  0.137E+00    0.08       1.0  T
  39    -72.9117749  0.957226E-01  0.173E+00    0.06       1.0  T
  40    -73.0628844 -0.151109E+00  0.927E-01    0.04       1.0  T
  41    -73.0830473 -0.201629E-01  0.720E-01    0.04       1.0  T
  42    -73.0879710 -0.492380E-02  0.585E-01    0.00       1.0  T
  43    -73.0804534  0.751768E-02  0.642E-01    0.01       1.0  T
  44    -73.0978951 -0.174417E-01  0.428E-01    0.01       1.0  T
  45    -73.0214179  0.764772E-01  0.108E+00    0.03       1.0  T
  46    -73.0296519 -0.823395E-02  0.103E+00    0.03       1.0  T
  47    -73.0963243 -0.666725E-01  0.435E-01    0.03       1.0  T
  48    -73.0893964  0.692797E-02  0.545E-01    0.04       1.0  T
  49    -73.0975051 -0.810877E-02  0.357E-01    0.02       1.0  T
  50    -73.0991781 -0.167295E-02  0.303E-01    0.03       1.0  T
  51    -73.0914101  0.776803E-02  0.469E-01    0.04       1.0  T
  52    -73.0974500 -0.603994E-02  0.333E-01    0.03       1.0  T
  53    -73.0967264  0.723615E-03  0.330E-01    0.03       1.0  T
  54    -73.0964300  0.296370E-03  0.329E-01    0.03       1.0  T
  55    -73.0970834 -0.653394E-03  0.294E-01    0.03       1.0  T
  56    -73.0988789 -0.179544E-02  0.198E-01    0.03       1.0  T
  57    -73.0997122 -0.833352E-03  0.133E-01    0.03       1.0  T
  58    -73.1007146 -0.100239E-02  0.525E-02    0.02       1.0  T
  59    -73.1007498 -0.351642E-04  0.437E-02    0.02       1.0  T
  60    -73.1006840  0.657796E-04  0.552E-02    0.02       1.0  T
  61    -73.1007784 -0.943865E-04  0.309E-02    0.02       1.0  T
  62    -73.1007778  0.592688E-06  0.234E-02    0.02       1.0  T
  63    -73.1007852 -0.743411E-05  0.217E-02    0.02       1.0  T
  64    -73.1007800  0.523452E-05  0.202E-02    0.02       1.0  T
  65    -73.1007714  0.856728E-05  0.200E-02    0.02       1.0  T
  66    -73.1007795 -0.813004E-05  0.168E-02    0.02       1.2  T
  67    -73.1007841 -0.457114E-05  0.145E-02    0.02       1.4  T
  68    -73.1007877 -0.356453E-05  0.123E-02    0.02       1.6  T
  69    -73.1007879 -0.212516E-06  0.117E-02    0.02       1.7  T
  70    -73.1007927 -0.478175E-05  0.833E-03    0.02       2.4  T
  71    -73.1007971 -0.441264E-05  0.316E-03    0.02       6.2  T
  72    -73.1007972 -0.127350E-06  0.218E-03    0.02       9.0  T
  73    -73.1007973 -0.973351E-07  0.110E-03    0.02      17.8  T
  74    -73.1007973 -0.411185E-07  0.471E-04    0.02      41.6  T
  75    -73.1007973 -0.684697E-08  0.312E-04    0.02      62.9  T

   *** convergence criteria satisfied after 75 iterations ***

         #    Occupation            Energy/Eh            Energy/eV
      -------------------------------------------------------------
         1        2.0000           -0.8218261             -22.3630
       ...           ...                  ...                  ...
        56        2.0000           -0.4906398             -13.3510
        57        1.9994           -0.4806819             -13.0800
        58        1.9978           -0.4794561             -13.0467
        59        1.9926           -0.4782887             -13.0149
        60        1.9877           -0.4778051             -13.0017
        61        1.7436           -0.4747943             -12.9198
        62        1.1438           -0.4732481             -12.8777 (HOMO)
        63        0.7260           -0.4724386             -12.8557 (LUMO)
        64        0.4090           -0.4716824             -12.8351
        65        0.0000           -0.4613844             -12.5549
        66                         -0.4499755             -12.2445
        67                         -0.4445375             -12.0965
       ...                                ...                  ...
       109                          1.1692037              31.8157
      -------------------------------------------------------------
                  HL-Gap            0.0008094 Eh            0.0220 eV
             Fermi-level           -0.4729729 Eh          -12.8702 eV

 SCC (total)                   0 d,  0 h,  0 min,  0.088 sec
 SCC setup                      ...        0 min,  0.000 sec (  0.108%)
 Dispersion                     ...        0 min,  0.000 sec (  0.158%)
 classical contributions        ...        0 min,  0.000 sec (  0.030%)
 integral evaluation            ...        0 min,  0.003 sec (  3.601%)
 iterations                     ...        0 min,  0.077 sec ( 86.764%)
 molecular gradient             ...        0 min,  0.008 sec (  9.215%)
 printout                       ...        0 min,  0.000 sec (  0.118%)

         :::::::::::::::::::::::::::::::::::::::::::::::::::::
         ::                     SUMMARY                     ::
         :::::::::::::::::::::::::::::::::::::::::::::::::::::
         :: total energy             -72.601696457075 Eh    ::
         :: gradient norm              0.614941845012 Eh/a0 ::
         :: HOMO-LUMO gap              0.022025941198 eV    ::
         ::.................................................::
         :: SCC energy               -73.100797345772 Eh    ::
         :: -> isotropic ES            0.157135423345 Eh    ::
         :: -> anisotropic ES         -0.001957183166 Eh    ::
         :: -> anisotropic XC          0.029749768909 Eh    ::
         :: -> dispersion             -0.030649660677 Eh    ::
         :: repulsion energy           0.499139047640 Eh    ::
         :: add. restraining           0.000000000000 Eh    ::
         :: total charge              -0.000000001095 e     ::
         :::::::::::::::::::::::::::::::::::::::::::::::::::::

           -------------------------------------------------
          |                Property Printout                |
           -------------------------------------------------

    * Orbital Energies and Occupations

         #    Occupation            Energy/Eh            Energy/eV
      -------------------------------------------------------------
         1        2.0000           -0.8218261             -22.3630
       ...           ...                  ...                  ...
        50        2.0000           -0.5115473             -13.9199
        51        2.0000           -0.5099929             -13.8776
        52        2.0000           -0.5095786             -13.8663
        53        2.0000           -0.5079254             -13.8214
        54        2.0000           -0.5070534             -13.7976
        55        2.0000           -0.4924976             -13.4015
        56        2.0000           -0.4906398             -13.3510
        57        1.9994           -0.4806819             -13.0800
        58        1.9978           -0.4794561             -13.0467
        59        1.9926           -0.4782887             -13.0149
        60        1.9877           -0.4778051             -13.0017
        61        1.7436           -0.4747943             -12.9198
        62        1.1438           -0.4732481             -12.8777 (HOMO)
        63        0.7260           -0.4724386             -12.8557 (LUMO)
        64        0.4090           -0.4716824             -12.8351
        65        0.0000           -0.4613844             -12.5549
        66                         -0.4499755             -12.2445
        67                         -0.4445375             -12.0965
        68                         -0.4299938             -11.7007
        69                         -0.4293182             -11.6823
        70                         -0.4163633             -11.3298
        71                         -0.3965551             -10.7908
        72                         -0.3760104             -10.2318
        73                         -0.3689688             -10.0402
       ...                                ...                  ...
       109                          1.1692037              31.8157
      -------------------------------------------------------------
                  HL-Gap            0.0008094 Eh            0.0220 eV
             Fermi-level           -0.4729729 Eh          -12.8702 eV

molecular dipole:
                 x           y           z       tot (Debye)
 q only:        1.627      -1.366       0.493
   full:        1.391      -1.070       0.929       5.048
molecular quadrupole (traceless):
                xx          xy          yy          xz          yz          zz
 q only:      119.937     -71.300     -61.650     163.203     -96.575     -58.286
  q+dip:       87.586     -52.170     -73.826     184.784     -77.229     -13.760
   full:       91.603     -51.569     -78.180     186.617     -78.315     -13.423


 cube file module (SG, 7/16)
 cube_pthr     :   0.050
 cube_step     :   0.945
 non-zero P (%):  17.150   nmat:    1047
 Grid Boundaries (x y z) :
   53.240623466301081        15.931843735869210        49.488302015031373     
   33.222181539596747       -13.369637782815214        27.910291794391288     
 Total # of points       16192
 writing density.cub
 N    (numint) : ******
cpu  time for cube    0.22 s
wall time for cube    0.21 s

           -------------------------------------------------
          | TOTAL ENERGY              -72.601696457075 Eh   |
          | GRADIENT NORM               0.614941845012 Eh/α |
          | HOMO-LUMO GAP               0.022025941198 eV   |
           -------------------------------------------------

------------------------------------------------------------------------
 * finished run on 2024/04/26 at 16:51:04.182     
------------------------------------------------------------------------
 total:
 * wall-time:     0 d,  0 h,  0 min,  0.310 sec
 *  cpu-time:     0 d,  0 h,  0 min,  0.310 sec
 * ratio c/w:     1.000 speedup
 SCF:
 * wall-time:     0 d,  0 h,  0 min,  0.088 sec
 *  cpu-time:     0 d,  0 h,  0 min,  0.088 sec
 * ratio c/w:     1.000 speedup

